{
    "ChemicalSafety": {
        "Extra": "Irritant",
        "Type": "Icon",
        "URL": "https://pubchem.ncbi.nlm.nih.gov/images/ghs/GHS07.svg"
    },
    "IUPACName": "2-amino-1-phenylethanol",
    "InChI": "InChI=1S/C8H11NO/c9-6-8(10)7-4-2-1-3-5-7/h1-5,8,10H,6,9H2",
    "InChIKey": "ULSIYEODSMZIPX-UHFFFAOYSA-N",
    "CanonicalSMILES": "C1=CC=C(C=C1)C(CN)O",
    "MolecularFormula": "C8H11NO",
    "CAS": "7568-93-6",
    "RelatedCAS": "N/A",
    "EuropeanCommunityNumber": "231-469-1",
    "ICSCNumber": "N/A",
    "RTECSNumber": "N/A",
    "UNNumber": "N/A",
    "UNII": "N/A",
    "FEMANumber": "N/A",
    "DSSToxSubstanceID": "N/A",
    "Wikipedia": "https://en.wikipedia.org/wiki/Phenylethanolamine",
    "NCIThesaurusCode": "N/A",
    "MolecularWeight": "137.18",
    "CompoundIsCanonicalized": "Yes",
    "XLogP3": 0.1,
    "HydrogenBondDonorCount": 2,
    "HydrogenBondAcceptorCount": 2,
    "RotatableBondCount": 2,
    "ExactMass": {
        "String": "137.084063974",
        "Unit": "g/mol"
    },
    "MonoisotopicMass": {
        "String": "137.084063974",
        "Unit": "g/mol"
    },
    "TopologicalPolarSurfaceArea": {
        "Number": 46.2,
        "Unit": "Å²"
    },
    "HeavyAtomCount": 10,
    "FormalCharge": 0,
    "Complexity": 89.3,
    "IsotopeAtomCount": 0,
    "DefinedAtomStereocenterCount": 0,
    "UndefinedAtomStereocenterCount": 1,
    "DefinedBondStereocenterCount": 0,
    "UndefinedBondStereocenterCount": 0,
    "Covalently-BondedUnitCount": 1,
    "PhysicalDescription": "Solid",
    "ColorForm": "N/A",
    "Odor": "N/A",
    "Taste": "N/A",
    "BoilingPoint": "N/A",
    "MeltingPoint": "56.5°C",
    "FlashPoint": "N/A",
    "Solubility": "45.8 mg/mL",
    "Density": "N/A",
    "VaporDensity": "N/A",
    "VaporPressure": "N/A",
    "LogP": "N/A",
    "HenrysLawConstant": "N/A",
    "AtmosphericOHRateConstant": "N/A",
    "Stability/ShelfLife": "N/A",
    "AutoignitionTemperature": "N/A",
    "Decomposition": "N/A",
    "Viscosity": "N/A",
    "Corrosivity": "N/A",
    "HeatofCombustion": "N/A",
    "HeatofVaporization": "N/A",
    "pH": "N/A",
    "SurfaceTension": "N/A",
    "IonizationPotential": "N/A",
    "Polymerization": "N/A",
    "OdorThreshold": "N/A",
    "RefractiveIndex": "N/A",
    "DissociationConstants": "N/A",
    "KovatsRetentionIndex": "N/A",
    "OtherExperimentalProperties": "N/A",
    "FoodAdditiveClasses": "N/A",
    "AgrochemicalCategory": "N/A",
    "id": 0
}