{
    "RecordTitle": "Ammonium ion",
    "ChemicalSafety": [
        {
            "Extra": "Corrosive",
            "Type": "Icon",
            "URL": "https://pubchem.ncbi.nlm.nih.gov/images/ghs/GHS05.svg"
        },
        {
            "Extra": "Irritant",
            "Type": "Icon",
            "URL": "https://pubchem.ncbi.nlm.nih.gov/images/ghs/GHS07.svg"
        },
        {
            "Extra": "Environmental Hazard",
            "Type": "Icon",
            "URL": "https://pubchem.ncbi.nlm.nih.gov/images/ghs/GHS09.svg"
        }
    ],
    "RecordDescription": [
        "Ammonium is an onium cation obtained by protonation of ammonia. It has a role as a human metabolite, a Saccharomyces cerevisiae metabolite, an Escherichia coli metabolite and a cofactor. It is a nitrogen hydride, an onium cation and a monovalent inorganic cation. It is a conjugate acid of an ammonia.",
        "Inorganic compounds that include a positively charged tetrahedral nitrogen (ammonium ion) as part of their structure. This class of compounds includes a broad variety of simple ammonium salts and derivatives."
    ],
    "IUPACName": "azanium",
    "InChI": "InChI=1S/H3N/h1H3/p+1",
    "InChIKey": "QGZKDVFQNNGYKY-UHFFFAOYSA-O",
    "CanonicalSMILES": "[NH4+]",
    "MolecularFormula": "H4N+",
    "CAS": [
        "14798-03-9",
        "15194-15-7",
        "92075-50-8",
        "106233-03-8"
    ],
    "RelatedCAS": "N/A",
    "EuropeanCommunityNumber": "N/A",
    "ICSCNumber": "N/A",
    "RTECSNumber": "N/A",
    "UNNumber": "N/A",
    "UNII": "54S68520I4",
    "FEMANumber": "N/A",
    "DSSToxSubstanceID": "DTXSID5043974",
    "Wikipedia": [
        "https://en.wikipedia.org/wiki/Ammonium",
        "https://www.wikidata.org/wiki/Q27110062",
        "https://www.wikidata.org/wiki/Q27110020",
        "https://www.wikidata.org/wiki/Q27110026"
    ],
    "NCIThesaurusCode": "N/A",
    "MolecularWeight": "18.039",
    "CompoundIsCanonicalized": "Yes",
    "XLogP3": -0.7,
    "HydrogenBondDonorCount": 1,
    "HydrogenBondAcceptorCount": 0,
    "RotatableBondCount": 0,
    "ExactMass": {
        "String": "18.034374132",
        "Unit": "g/mol"
    },
    "MonoisotopicMass": {
        "String": "18.034374132",
        "Unit": "g/mol"
    },
    "TopologicalPolarSurfaceArea": {
        "Number": 1,
        "Unit": "Å²"
    },
    "HeavyAtomCount": 1,
    "FormalCharge": 1,
    "Complexity": 0,
    "IsotopeAtomCount": 0,
    "DefinedAtomStereocenterCount": 0,
    "UndefinedAtomStereocenterCount": 0,
    "DefinedBondStereocenterCount": 0,
    "UndefinedBondStereocenterCount": 0,
    "Covalently-BondedUnitCount": 1,
    "PhysicalDescription": "N/A",
    "ColorForm": "N/A",
    "Odor": "N/A",
    "Taste": "N/A",
    "BoilingPoint": "N/A",
    "MeltingPoint": "N/A",
    "FlashPoint": "N/A",
    "Solubility": "10.2 mg/mL at 20 °C",
    "Density": "N/A",
    "VaporDensity": "N/A",
    "VaporPressure": "N/A",
    "LogP": "N/A",
    "HenrysLawConstant": "N/A",
    "AtmosphericOHRateConstant": "N/A",
    "Stability/ShelfLife": "N/A",
    "AutoignitionTemperature": "N/A",
    "Decomposition": "N/A",
    "Viscosity": "N/A",
    "Corrosivity": "N/A",
    "HeatofCombustion": "N/A",
    "HeatofVaporization": "N/A",
    "pH": "N/A",
    "SurfaceTension": "N/A",
    "IonizationPotential": "N/A",
    "Polymerization": "N/A",
    "OdorThreshold": "N/A",
    "RefractiveIndex": "N/A",
    "DissociationConstants": "N/A",
    "KovatsRetentionIndex": "N/A",
    "OtherExperimentalProperties": "N/A",
    "FoodAdditiveClasses": "N/A",
    "AgrochemicalCategory": "N/A",
    "id": 1
}